 vasp.6.3.2 27Jun22 (build Dec 21 2022 11:15:52) complex                        
  
 executed on Aspire2aVTSTlibbeefS date 2024.05.07  18:19:45
 running   64 mpi-ranks, with    1 threads/rank
 distrk:  each k-point on   32 cores,    2 groups
 distr:  one band on NCORE=   8 cores,    4 groups


--------------------------------------------------------------------------------------------------------


 INCAR:
   ENCUT = 500.000000
   KSPACING = 0.600000
   SIGMA = 0.050000
   EDIFF = 1.00e-05
   EDIFFG = -1.00e-02
   ALGO = Fast
   GGA = PE
   PREC = High
   IBRION = 2
   ICHARG = 1
   ISIF = 3
   ISMEAR = 0
   ISPIN = 2
   ISTART = 0
   KPAR = 2
   LORBIT = 11
   NELM = 200
   NELMIN = 4
   NPAR = 4
   NSIM = 8
   NSW = 400
   NUPDOWN = -1
   IVDW = 11
   LCHARG = .FALSE.
   LWAVE = .FALSE.
   LREAL = .FALSE.

 POTCAR:    PAW_PBE Li_sv 10Sep2004               
 -----------------------------------------------------------------------------
|                                                                             |
|           W    W    AA    RRRRR   N    N  II  N    N   GGGG   !!!           |
|           W    W   A  A   R    R  NN   N  II  NN   N  G    G  !!!           |
|           W    W  A    A  R    R  N N  N  II  N N  N  G       !!!           |
|           W WW W  AAAAAA  RRRRR   N  N N  II  N  N N  G  GGG   !            |
|           WW  WW  A    A  R   R   N   NN  II  N   NN  G    G                |
|           W    W  A    A  R    R  N    N  II  N    N   GGGG   !!!           |
|                                                                             |
|     You use a magnetic or noncollinear calculation, but did not specify     |
|     the initial magnetic moment with the MAGMOM tag. Note that a            |
|     default of 1 will be used for all atoms. This ferromagnetic setup       |
|     may break the symmetry of the crystal, in particular it may rule        |
|     out finding an antiferromagnetic solution. Thence, we recommend         |
|     setting the initial magnetic moment manually or verifying carefully     |
|     that this magnetic setup is desired.                                    |
|                                                                             |
 -----------------------------------------------------------------------------

 POTCAR:    PAW_PBE Li_sv 10Sep2004               
   VRHFIN =Li: 1s2s2p                                                                               
   LEXCH  = PE                                                                                      
   EATOM  =   202.7858 eV,   14.9043 Ry                                                             
                                                                                                    
   TITEL  = PAW_PBE Li_sv 10Sep2004                                                                 
   LULTRA =        F    use ultrasoft PP ?                                                          
   IUNSCR =        0    unscreen: 0-lin 1-nonlin 2-no                                               
   RPACOR =    0.000    partial core radius                                                         
   POMASS =    7.010; ZVAL   =    3.000    mass and valenz                                          
   RCORE  =    1.700    outmost cutoff radius                                                       
   RWIGS  =    2.050; RWIGS  =    1.085    wigner-seitz radius (au A)                               
   ENMAX  =  499.034; ENMIN  =  374.276 eV                                                          
   ICORE  =        2    local potential                                                             
   LCOR   =        T    correct aug charges                                                         
   LPAW   =        T    paw PP                                                                      
   EAUG   =  628.945                                                                                
   RMAX   =    1.732    core radius for proj-oper                                                   
   RAUG   =    1.300    factor for augmentation sphere                                              
   RDEP   =    1.728    radius for radial grids                                                     
   RDEPT  =    1.329    core radius for aug-charge                                                  
                                                                                                    
   Atomic configuration                                                                             
    4 entries                                                                                       
     n  l   j            E        occ.                                                              
     1  0  0.50       -51.8549   2.0000                                                             
     2  0  0.50        -2.8742   1.0000                                                             
     2  1  0.50        -1.3606   0.0000                                                             
     3  2  1.50        -1.3606   0.0000                                                             
   Description                                                                                      
     l       E           TYP  RCUT    TYP  RCUT                                                     
     0    -51.8548813     23  1.400                                                                 
     0     -2.8742052     23  1.700                                                                 
     1     -1.3605826     23  1.400                                                                 
     2     -1.3605826     23  1.400                                                                 
  local pseudopotential read in
  atomic valenz-charges read in
  non local Contribution for L=           0  read in
    real space projection operators read in
  non local Contribution for L=           0  read in
    real space projection operators read in
  non local Contribution for L=           1  read in
    real space projection operators read in
    PAW grid and wavefunctions read in
 
   number of l-projection  operators is LMAX  =           3
   number of lm-projection operators is LMMAX =           5
 
  PAW_PBE Li_sv 10Sep2004               :
 energy of atom  1       EATOM= -202.7858
 kinetic energy error for atom=    0.0143 (will be added to EATOM!!)
 
 
 POSCAR: Li
  positions in cartesian coordinates
  No initial velocities read in
 exchange correlation table for  LEXCH =        8
   RHO(1)=    0.500       N(1)  =     2000
   RHO(2)=  100.500       N(2)  =     4000

 VTST: version 4.2, (08/11/21)

 CHAIN: initializing optimizer
 
 OPT: Using VASP Conjugate-Gradient optimizer
 CHAIN: Read ICHAIN            0
 
 POSCAR: Li
  positions in cartesian coordinates
  No initial velocities read in
 


--------------------------------------------------------------------------------------------------------


 ion  position               nearest neighbor table
   1  0.000  0.000  0.000-
   2  0.500  0.500  0.500-
 
  LATTYP: Found a simple cubic cell.
 ALAT       =     3.3678055527
  
  Lattice vectors:
  
 A1 = (   3.3678055527,   0.0000000046,   0.0000000046)
 A2 = (  -0.0000002305,   3.3678055527,   0.0000000046)
 A3 = (  -0.0000002305,  -0.0000002305,   3.3678055527)


Analysis of symmetry for initial positions (statically):
=====================================================================
 Subroutine PRICEL returns following result:
 
  LATTYP: Found a body centered cubic cell.
 ALAT       =     3.3678056280
  
  Lattice vectors:
  
 A1 = (   1.6839027763,   1.6839028939,  -1.6839027717)
 A2 = (  -1.6839030069,   1.6839026588,   1.6839027763)
 A3 = (   1.6839027763,  -1.6839028893,   1.6839027763)
 
   2 primitive cells build up your supercell.
 

 Routine SETGRP: Setting up the symmetry group for a 
 simple cubic supercell.


 Subroutine GETGRP returns: Found 48 space group operations
 (whereof 48 operations were pure point group operations)
 out of a pool of 48 trial point group operations.


The static configuration has the point symmetry O_h .


Analysis of symmetry for dynamics (positions and initial velocities):
=====================================================================
 Subroutine PRICEL returns following result:
 
  LATTYP: Found a body centered cubic cell.
 ALAT       =     3.3678056280
  
  Lattice vectors:
  
 A1 = (   1.6839027763,   1.6839028939,  -1.6839027717)
 A2 = (  -1.6839030069,   1.6839026588,   1.6839027763)
 A3 = (   1.6839027763,  -1.6839028893,   1.6839027763)
 
   2 primitive cells build up your supercell.
 

 Routine SETGRP: Setting up the symmetry group for a 
 simple cubic supercell.


 Subroutine GETGRP returns: Found 48 space group operations
 (whereof 48 operations were pure point group operations)
 out of a pool of 48 trial point group operations.


The dynamic configuration has the point symmetry O_h .


Analysis of structural, dynamic, and magnetic symmetry:
=====================================================================
 Subroutine PRICEL returns following result:
 
  LATTYP: Found a body centered cubic cell.
 ALAT       =     3.3678056280
  
  Lattice vectors:
  
 A1 = (   1.6839027763,   1.6839028939,  -1.6839027717)
 A2 = (  -1.6839030069,   1.6839026588,   1.6839027763)
 A3 = (   1.6839027763,  -1.6839028893,   1.6839027763)
 
   2 primitive cells build up your supercell.
 

 Routine SETGRP: Setting up the symmetry group for a 
 simple cubic supercell.


 Subroutine GETGRP returns: Found 48 space group operations
 (whereof 48 operations were pure point group operations)
 out of a pool of 48 trial point group operations.


The overall configuration has the point symmetry O_h .


 Subroutine INISYM returns: Found 48 space group operations
 (whereof 48 operations are pure point group operations),
 and found     2 'primitive' translations


----------------------------------------------------------------------------------------

                                     Primitive cell                                     

  volume of cell :      19.0990

  direct lattice vectors                    reciprocal lattice vectors
     1.683902776  1.683902894 -1.683902772     0.296929256  0.296929277  0.000000041
    -1.683903007  1.683902659  1.683902776    -0.000000001  0.296929256  0.296929277
     1.683902776 -1.683902889  1.683902776     0.296929256  0.000000020  0.296929277

  length of vectors
     2.916605229  2.916605229  2.916605229     0.419921396  0.419921396  0.419921396

  position of ions in fractional coordinates (direct lattice)
     0.000000000  0.000000000  0.000000000

  ion indices of the primitive-cell ions
   primitive index   ion index
                 1           1

----------------------------------------------------------------------------------------

 
 -----------------------------------------------------------------------------
|                                                                             |
|           W    W    AA    RRRRR   N    N  II  N    N   GGGG   !!!           |
|           W    W   A  A   R    R  NN   N  II  NN   N  G    G  !!!           |
|           W    W  A    A  R    R  N N  N  II  N N  N  G       !!!           |
|           W WW W  AAAAAA  RRRRR   N  N N  II  N  N N  G  GGG   !            |
|           WW  WW  A    A  R   R   N   NN  II  N   NN  G    G                |
|           W    W  A    A  R    R  N    N  II  N    N   GGGG   !!!           |
|                                                                             |
|     The requested file  could not be found or opened for reading            |
|     k-point information. Automatic k-point generation is used as a          |
|     fallback, which may lead to unwanted results.                           |
|                                                                             |
 -----------------------------------------------------------------------------

 

Automatic generation of k-mesh.
 Grid dimensions derived from KSPACING:
 generate k-points for:    4    4    4

 Generating k-lattice:

  Cartesian coordinates                     Fractional coordinates (reciprocal lattice)
     0.074232314  0.000000005  0.000000005     0.250000000  0.000000000  0.000000000
    -0.000000000  0.074232314  0.000000005    -0.000000000  0.250000000  0.000000000
    -0.000000000 -0.000000000  0.074232314     0.000000000 -0.000000000  0.250000000

  Length of vectors
     0.074232314  0.074232314  0.074232314

  Shift w.r.t. Gamma in fractional coordinates (k-lattice)
     0.000000000  0.000000000  0.000000000

 
 Subroutine IBZKPT returns following result:
 ===========================================
 
 Found     10 irreducible k-points:
 
 Following reciprocal coordinates:
            Coordinates               Weight
  0.000000  0.000000  0.000000      1.000000
  0.250000 -0.000000  0.000000      6.000000
  0.500000 -0.000000  0.000000      3.000000
  0.250000  0.250000 -0.000000     12.000000
  0.500000  0.250000 -0.000000     12.000000
  0.500000  0.500000 -0.000000      3.000000
  0.250000  0.250000  0.250000      8.000000
  0.500000  0.250000  0.250000     12.000000
  0.500000  0.500000  0.250000      6.000000
  0.500000  0.500000  0.500000      1.000000
 
 Following cartesian coordinates:
            Coordinates               Weight
  0.000000  0.000000  0.000000      1.000000
  0.074232  0.000000  0.000000      6.000000
  0.148465  0.000000  0.000000      3.000000
  0.074232  0.074232  0.000000     12.000000
  0.148465  0.074232  0.000000     12.000000
  0.148465  0.148465  0.000000      3.000000
  0.074232  0.074232  0.074232      8.000000
  0.148465  0.074232  0.074232     12.000000
  0.148465  0.148465  0.074232      6.000000
  0.148465  0.148465  0.148465      1.000000
 


--------------------------------------------------------------------------------------------------------




 Dimension of arrays:
   k-points           NKPTS =     10   k-points in BZ     NKDIM =     10   number of bands    NBANDS=      8
   number of dos      NEDOS =    301   number of ions     NIONS =      2
   non local maximal  LDIM  =      3   non local SUM 2l+1 LMDIM =      5
   total plane-waves  NPLWV =  21952
   max r-space proj   IRMAX =      1   max aug-charges    IRDMAX=   2070
   dimension x,y,z NGX =    28 NGY =   28 NGZ =   28
   dimension x,y,z NGXF=    36 NGYF=   36 NGZF=   36
   support grid    NGXF=    36 NGYF=   36 NGZF=   36
   ions per type =               2
   NGX,Y,Z   is equivalent  to a cutoff of  13.82, 13.82, 13.82 a.u.
   NGXF,Y,Z  is equivalent  to a cutoff of  17.77, 17.77, 17.77 a.u.

 SYSTEM =  unknown system                          
 POSCAR =  Li                                      

 Startparameter for this run:
   NWRITE =      2    write-flag & timer
   PREC   = high      normal or accurate (medium, high low for compatibility)
   ISTART =      0    job   : 0-new  1-cont  2-samecut
   ICHARG =      1    charge: 1-file 2-atom 10-const
   ISPIN  =      2    spin polarized calculation?
   LNONCOLLINEAR =      F non collinear calculations
   LSORBIT =      F    spin-orbit coupling
   INIWAV =      1    electr: 0-lowe 1-rand  2-diag
   LASPH  =      F    aspherical Exc in radial PAW
 Electronic Relaxation 1
   ENCUT  =  500.0 eV  36.75 Ry    6.06 a.u.   6.14  6.14  6.14*2*pi/ulx,y,z
   ENINI  =  500.0     initial cutoff
   ENAUG  =  628.9 eV  augmentation charge cutoff
   NELM   =    200;   NELMIN=  4; NELMDL= -5     # of ELM steps 
   EDIFF  = 0.1E-04   stopping-criterion for ELM
   LREAL  =      F    real-space projection
   NLSPLINE    = F    spline interpolate recip. space projectors
   LCOMPAT=      F    compatible to vasp.4.4
   GGA_COMPAT  = T    GGA compatible to vasp.4.4-vasp.4.6
   LMAXPAW     = -100 max onsite density
   LMAXMIX     =    2 max onsite mixed and CHGCAR
   VOSKOWN=      0    Vosko Wilk Nusair interpolation
   ROPT   =    0.00000
 Ionic relaxation
   EDIFFG = -.1E-01   stopping-criterion for IOM
   NSW    =    400    number of steps for IOM
   NBLOCK =      1;   KBLOCK =    400    inner block; outer block 
   IBRION =      2    ionic relax: 0-MD 1-quasi-New 2-CG
   NFREE  =      1    steps in history (QN), initial steepest desc. (CG)
   ISIF   =      3    stress and relaxation
   IWAVPR =     11    prediction:  0-non 1-charg 2-wave 3-comb
   ISYM   =      2    0-nonsym 1-usesym 2-fastsym
   LCORR  =      T    Harris-Foulkes like correction to forces

   POTIM  = 0.5000    time-step for ionic-motion
   TEIN   =    0.0    initial temperature
   TEBEG  =    0.0;   TEEND  =   0.0 temperature during run
   SMASS  =  -3.00    Nose mass-parameter (am)
   estimated Nose-frequenzy (Omega)   =  0.10E-29 period in steps = 0.13E+47 mass=  -0.259E-27a.u.
   SCALEE = 1.0000    scale energy and forces
   NPACO  =    256;   APACO  = 10.0  distance and # of slots for P.C.
   PSTRESS=    0.0 pullay stress

  Mass of Ions in am
   POMASS =   7.01
  Ionic Valenz
   ZVAL   =   3.00
  Atomic Wigner-Seitz radii
   RWIGS  =  -1.00
  virtual crystal weights 
   VCA    =   1.00
   NELECT =       6.0000    total number of electrons
   NUPDOWN=      -1.0000    fix difference up-down

 DOS related values:
   EMIN   =  10.00;   EMAX   =-10.00  energy-range for DOS
   EFERMI =   0.00
   ISMEAR =     0;   SIGMA  =   0.05  broadening in eV -4-tet -1-fermi 0-gaus

 Electronic relaxation 2 (details)
   IALGO  =     68    algorithm
   LDIAG  =      T    sub-space diagonalisation (order eigenvalues)
   LSUBROT=      F    optimize rotation matrix (better conditioning)
   TURBO    =      0    0=normal 1=particle mesh
   IRESTART =      0    0=no restart 2=restart with 2 vectors
   NREBOOT  =      0    no. of reboots
   NMIN     =      0    reboot dimension
   EREF     =   0.00    reference energy to select bands
   IMIX   =      4    mixing-type and parameters
     AMIX     =   0.40;   BMIX     =  1.00
     AMIX_MAG =   1.60;   BMIX_MAG =  1.00
     AMIN     =   0.10
     WC   =   100.;   INIMIX=   1;  MIXPRE=   1;  MAXMIX= -45

 Intra band minimization:
   WEIMIN = 0.0010     energy-eigenvalue tresh-hold
   EBREAK =  0.31E-06  absolut break condition
   DEPER  =   0.30     relativ break condition  

   TIME   =   0.40     timestep for ELM

  volume/ion in A,a.u.               =      19.10       128.89
  Fermi-wavevector in a.u.,A,eV,Ry     =   0.883307  1.669208 10.615686  0.780231
  Thomas-Fermi vector in A             =   2.004055
 
 Write flags
   LWAVE        =      F    write WAVECAR
   LDOWNSAMPLE  =      F    k-point downsampling of WAVECAR
   LCHARG       =      F    write CHGCAR
   LVTOT        =      F    write LOCPOT, total local potential
   LVHAR        =      F    write LOCPOT, Hartree potential only
   LELF         =      F    write electronic localiz. function (ELF)
   LORBIT       =     11    0 simple, 1 ext, 2 COOP (PROOUT), +10 PAW based schemes


 Dipole corrections
   LMONO  =      F    monopole corrections only (constant potential shift)
   LDIPOL =      F    correct potential (dipole corrections)
   IDIPOL =      0    1-x, 2-y, 3-z, 4-all directions 
   EPSILON=  1.0000000 bulk dielectric constant

 Exchange correlation treatment:
   GGA     =    PE    GGA type
   LEXCH   =     8    internal setting for exchange type
   LIBXC   =     F    Libxc                    
   VOSKOWN =     0    Vosko Wilk Nusair interpolation
   LHFCALC =     F    Hartree Fock is set to
   LHFONE  =     F    Hartree Fock one center treatment
   AEXX    =    0.0000 exact exchange contribution

 Linear response parameters
   LEPSILON=     F    determine dielectric tensor
   LRPA    =     F    only Hartree local field effects (RPA)
   LNABLA  =     F    use nabla operator in PAW spheres
   LVEL    =     F    velocity operator in full k-point grid
   CSHIFT  =0.1000    complex shift for real part using Kramers Kronig
   OMEGAMAX=  -1.0    maximum frequency
   DEG_THRESHOLD= 0.2000000E-02 threshold for treating states as degnerate
   RTIME   =   -0.100 relaxation time in fs
  (WPLASMAI=    0.000 imaginary part of plasma frequency in eV, 0.658/RTIME)
   DFIELD  = 0.0000000 0.0000000 0.0000000 field for delta impulse in time
 
  Optional k-point grid parameters
   LKPOINTS_OPT  =     F    use optional k-point grid
   KPOINTS_OPT_MODE=     1    mode for optional k-point grid
 
 Orbital magnetization related:
   ORBITALMAG=     F  switch on orbital magnetization
   LCHIMAG   =     F  perturbation theory with respect to B field
   DQ        =  0.001000  dq finite difference perturbation B field
   LLRAUG    =     F  two centre corrections for induced B field



--------------------------------------------------------------------------------------------------------


 conjugate gradient relaxation of ions
 charge density and potential will be updated during run
 spin polarized calculation
 RMM-DIIS sequential band-by-band and
  variant of blocked Davidson during initial phase
 perform sub-space diagonalisation
    before iterative eigenvector-optimisation
 modified Broyden-mixing scheme, WC =      100.0
 initial mixing is a Kerker type mixing with AMIX =  0.4000 and BMIX =      1.0000
 Hartree-type preconditioning will be used
 using additional bands            5
 reciprocal scheme for non local part
 calculate Harris-corrections to forces 
   (improved forces if not selfconsistent)
 use gradient corrections 
 use of overlap-Matrix (Vanderbilt PP)
 Gauss-broadening in eV      SIGMA  =   0.05


--------------------------------------------------------------------------------------------------------


  energy-cutoff  :      500.00
  volume of cell :       38.20
      direct lattice vectors                 reciprocal lattice vectors
     3.367805553  0.000000005  0.000000005     0.296929257  0.000000020  0.000000020
    -0.000000231  3.367805553  0.000000005    -0.000000000  0.296929257  0.000000020
    -0.000000231 -0.000000231  3.367805553    -0.000000000 -0.000000000  0.296929257

  length of vectors
     3.367805553  3.367805553  3.367805553     0.296929257  0.296929257  0.296929257


 
 k-points in units of 2pi/SCALE and weight: read from INCAR                         
   0.00000000  0.00000000  0.00000000       0.016
   0.07423231  0.00000001  0.00000001       0.094
   0.14846463  0.00000001  0.00000001       0.047
   0.07423231  0.07423232  0.00000001       0.188
   0.14846463  0.07423232  0.00000002       0.188
   0.14846463  0.14846464  0.00000002       0.047
   0.07423231  0.07423232  0.07423232       0.125
   0.14846463  0.07423232  0.07423233       0.188
   0.14846463  0.14846464  0.07423233       0.094
   0.14846463  0.14846464  0.14846465       0.016
 
 k-points in reciprocal lattice and weights: read from INCAR                         
   0.00000000  0.00000000  0.00000000       0.016
   0.25000000 -0.00000000  0.00000000       0.094
   0.50000000 -0.00000000  0.00000000       0.047
   0.25000000  0.25000000 -0.00000000       0.188
   0.50000000  0.25000000 -0.00000000       0.188
   0.50000000  0.50000000 -0.00000000       0.047
   0.25000000  0.25000000  0.25000000       0.125
   0.50000000  0.25000000  0.25000000       0.188
   0.50000000  0.50000000  0.25000000       0.094
   0.50000000  0.50000000  0.50000000       0.016
 
 position of ions in fractional coordinates (direct lattice) 
   0.00000000  0.00000000  0.00000000
   0.50000000  0.50000000  0.50000000
 
 position of ions in cartesian coordinates  (Angst):
   0.00000000  0.00000000  0.00000000
   1.68390255  1.68390266  1.68390278
 


--------------------------------------------------------------------------------------------------------


 k-point   1 :   0.0000 0.0000 0.0000  plane waves:     949
 k-point   2 :   0.2500-0.0000 0.0000  plane waves:     976
 k-point   3 :   0.5000-0.0000 0.0000  plane waves:     972
 k-point   4 :   0.2500 0.2500-0.0000  plane waves:     983
 k-point   5 :   0.5000 0.2500-0.0000  plane waves:     956
 k-point   6 :   0.5000 0.5000-0.0000  plane waves:     992
 k-point   7 :   0.2500 0.2500 0.2500  plane waves:     973
 k-point   8 :   0.5000 0.2500 0.2500  plane waves:     964
 k-point   9 :   0.5000 0.5000 0.2500  plane waves:     988
 k-point  10 :   0.5000 0.5000 0.5000  plane waves:     968

 maximum and minimum number of plane-waves per node :       134      109

 maximum number of plane-waves:       992
 maximum index in each direction: 
   IXMAX=    6   IYMAX=    6   IZMAX=    6
   IXMIN=   -6   IYMIN=   -6   IZMIN=   -6


 parallel 3D FFT for wavefunctions:
    minimum data exchange during FFTs selected (reduces bandwidth)
 parallel 3D FFT for charge:
    minimum data exchange during FFTs selected (reduces bandwidth)


 total amount of memory used by VASP MPI-rank0    30781. kBytes
=======================================================================

   base      :      30000. kBytes
   nonl-proj :         57. kBytes
   fftplans  :        184. kBytes
   grid      :        449. kBytes
   one-center:          2. kBytes
   wavefun   :         89. kBytes
 
     INWAV:  cpu time      0.0001: real time      0.0001
 Broyden mixing: mesh for mixing (old mesh)
   NGX = 13   NGY = 13   NGZ = 13
  (NGX  = 36   NGY  = 36   NGZ  = 36)
  gives a total of   2197 points

 initial charge density was supplied:
 number of electron       5.9999874 magnetization       2.0000000
 keeping initial charge density in first step


--------------------------------------------------------------------------------------------------------


 Maximum index for augmentation-charges          314 (set IRDMAX)


--------------------------------------------------------------------------------------------------------


 First call to EWALD:  gamma=   0.526
 Maximum number of real-space cells 3x 3x 3
 Maximum number of reciprocal cells 3x 3x 3

    FEWALD:  cpu time      0.0016: real time      0.0016


--------------------------------------- Iteration      1(   1)  ---------------------------------------


    POTLOK:  cpu time      0.0068: real time      0.0071
    SETDIJ:  cpu time      0.0023: real time      0.0025
     EDDAV:  cpu time      0.0294: real time      0.0297
       DOS:  cpu time      0.0019: real time      0.0019
    --------------------------------------------
      LOOP:  cpu time      0.0405: real time      0.0414

 eigenvalue-minimisations  :   320
 total energy-change (2. order) : 0.6299903E+01  (-0.2449399E+03)
 number of electron       5.9999874 magnetization       2.0000000
 augmentation part        5.9999874 magnetization       2.0000000

 Free energy of the ion-electron system (eV)
  ---------------------------------------------------
  alpha Z        PSCENC =         2.41058195
  Ewald energy   TEWEN  =      -140.04302783
  -Hartree energ DENC   =       -81.35025160
  -exchange      EXHF   =         0.00000000
  -V(xc)+E(xc)   XCENC  =        24.72645690
  PAW double counting   =       163.51027137     -194.23807409
  entropy T*S    EENTRO =        -0.00435294
  eigenvalues    EBANDS =      -174.25478908
  atomic energy  EATOM  =       405.54308828
  Solvation  Ediel_sol  =         0.00000000
  ---------------------------------------------------
  free energy    TOTEN  =         6.29990297 eV

  energy without entropy =        6.30425590  energy(sigma->0) =        6.30207943


--------------------------------------------------------------------------------------------------------




--------------------------------------- Iteration      1(   2)  ---------------------------------------


     EDDAV:  cpu time      0.0430: real time      0.0436
       DOS:  cpu time      0.0017: real time      0.0017
    --------------------------------------------
      LOOP:  cpu time      0.0447: real time      0.0453

 eigenvalue-minimisations  :   456
 total energy-change (2. order) :-0.7298540E+01  (-0.6952524E+01)
 number of electron       5.9999874 magnetization       2.0000000
 augmentation part        5.9999874 magnetization       2.0000000

 Free energy of the ion-electron system (eV)
  ---------------------------------------------------
  alpha Z        PSCENC =         2.41058195
  Ewald energy   TEWEN  =      -140.04302783
  -Hartree energ DENC   =       -81.35025160
  -exchange      EXHF   =         0.00000000
  -V(xc)+E(xc)   XCENC  =        24.72645690
  PAW double counting   =       163.51027137     -194.23807409
  entropy T*S    EENTRO =        -0.00590560
  eigenvalues    EBANDS =      -181.55177637
  atomic energy  EATOM  =       405.54308828
  Solvation  Ediel_sol  =         0.00000000
  ---------------------------------------------------
  free energy    TOTEN  =        -0.99863698 eV

  energy without entropy =       -0.99273138  energy(sigma->0) =       -0.99568418


--------------------------------------------------------------------------------------------------------




--------------------------------------- Iteration      1(   3)  ---------------------------------------


     EDDAV:  cpu time      0.0374: real time      0.0379
       DOS:  cpu time      0.0008: real time      0.0008
    --------------------------------------------
      LOOP:  cpu time      0.0382: real time      0.0386

 eigenvalue-minimisations  :   472
 total energy-change (2. order) :-0.9961171E+00  (-0.9790760E+00)
 number of electron       5.9999874 magnetization       2.0000000
 augmentation part        5.9999874 magnetization       2.0000000

 Free energy of the ion-electron system (eV)
  ---------------------------------------------------
  alpha Z        PSCENC =         2.41058195
  Ewald energy   TEWEN  =      -140.04302783
  -Hartree energ DENC   =       -81.35025160
  -exchange      EXHF   =         0.00000000
  -V(xc)+E(xc)   XCENC  =        24.72645690
  PAW double counting   =       163.51027137     -194.23807409
  entropy T*S    EENTRO =        -0.00588773
  eigenvalues    EBANDS =      -182.54791131
  atomic energy  EATOM  =       405.54308828
  Solvation  Ediel_sol  =         0.00000000
  ---------------------------------------------------
  free energy    TOTEN  =        -1.99475406 eV

  energy without entropy =       -1.98886633  energy(sigma->0) =       -1.99181019


--------------------------------------------------------------------------------------------------------




--------------------------------------- Iteration      1(   4)  ---------------------------------------


     EDDAV:  cpu time      0.0361: real time      0.1340
       DOS:  cpu time      0.0011: real time      0.0011
    --------------------------------------------
      LOOP:  cpu time      0.0372: real time      0.1351

 eigenvalue-minimisations  :   432
 total energy-change (2. order) :-0.3964414E-01  (-0.3964379E-01)
 number of electron       5.9999874 magnetization       2.0000000
 augmentation part        5.9999874 magnetization       2.0000000

 Free energy of the ion-electron system (eV)
  ---------------------------------------------------
  alpha Z        PSCENC =         2.41058195
  Ewald energy   TEWEN  =      -140.04302783
  -Hartree energ DENC   =       -81.35025160
  -exchange      EXHF   =         0.00000000
  -V(xc)+E(xc)   XCENC  =        24.72645690
  PAW double counting   =       163.51027137     -194.23807409
  entropy T*S    EENTRO =        -0.00587857
  eigenvalues    EBANDS =      -182.58756461
  atomic energy  EATOM  =       405.54308828
  Solvation  Ediel_sol  =         0.00000000
  ---------------------------------------------------
  free energy    TOTEN  =        -2.03439820 eV

  energy without entropy =       -2.02851962  energy(sigma->0) =       -2.03145891


--------------------------------------------------------------------------------------------------------




--------------------------------------- Iteration      1(   5)  ---------------------------------------


     EDDAV:  cpu time      0.0353: real time      0.0358
       DOS:  cpu time      0.0007: real time      0.0007
    CHARGE:  cpu time      0.0066: real time      0.0067
    MIXING:  cpu time      0.0004: real time      0.0004
    --------------------------------------------
      LOOP:  cpu time      0.0430: real time      0.0436

 eigenvalue-minimisations  :   448
 total energy-change (2. order) :-0.1438749E-03  (-0.1438749E-03)
 number of electron       5.9999873 magnetization       0.2010383
 augmentation part        1.8407243 magnetization      -0.5038643

 Broyden mixing:
  rms(total) = 0.12692E+01    rms(broyden)= 0.12691E+01
  rms(prec ) = 0.12691E+01
  weight for this iteration     100.00

 Free energy of the ion-electron system (eV)
  ---------------------------------------------------
  alpha Z        PSCENC =         2.41058195
  Ewald energy   TEWEN  =      -140.04302783
  -Hartree energ DENC   =       -81.35025160
  -exchange      EXHF   =         0.00000000
  -V(xc)+E(xc)   XCENC  =        24.72645690
  PAW double counting   =       163.51027137     -194.23807409
  entropy T*S    EENTRO =        -0.00587856
  eigenvalues    EBANDS =      -182.58770849
  atomic energy  EATOM  =       405.54308828
  Solvation  Ediel_sol  =         0.00000000
  ---------------------------------------------------
  free energy    TOTEN  =        -2.03454207 eV

  energy without entropy =       -2.02866351  energy(sigma->0) =       -2.03160279


--------------------------------------------------------------------------------------------------------




--------------------------------------- Iteration      1(   6)  ---------------------------------------


    POTLOK:  cpu time      0.0110: real time      0.0111
    SETDIJ:  cpu time      0.0008: real time      0.0008
    EDDIAG:  cpu time      0.0246: real time      0.0250
  RMM-DIIS:  cpu time      0.0124: real time      0.0125
    ORTHCH:  cpu time      0.0011: real time      0.0011
       DOS:  cpu time      0.0021: real time      0.0021
    CHARGE:  cpu time      0.0072: real time      0.0072
    MIXING:  cpu time      0.0007: real time      0.0007
    --------------------------------------------
      LOOP:  cpu time      0.0600: real time      0.0607

 eigenvalue-minimisations  :   336
 total energy-change (2. order) :-0.1244053E+01  (-0.3824616E-01)
 number of electron       5.9999873 magnetization       0.3137496
 augmentation part        1.8402837 magnetization      -0.1137751

 Broyden mixing:
  rms(total) = 0.60804E+00    rms(broyden)= 0.60803E+00
  rms(prec ) = 0.60804E+00
  weight for this iteration     100.00

 eigenvalues of (default mixing * dielectric matrix)
  average eigenvalue GAMMA=   0.6756
  0.6756

 Free energy of the ion-electron system (eV)
  ---------------------------------------------------
  alpha Z        PSCENC =         2.41058195
  Ewald energy   TEWEN  =      -140.04302783
  -Hartree energ DENC   =       -81.30672850
  -exchange      EXHF   =         0.00000000
  -V(xc)+E(xc)   XCENC  =        24.33168871
  PAW double counting   =       163.89868221     -194.67224200
  entropy T*S    EENTRO =        -0.00747330
  eigenvalues    EBANDS =      -183.43316441
  atomic energy  EATOM  =       405.54308828
  Solvation  Ediel_sol  =         0.00000000
  ---------------------------------------------------
  free energy    TOTEN  =        -3.27859489 eV

  energy without entropy =       -3.27112159  energy(sigma->0) =       -3.27485824


--------------------------------------------------------------------------------------------------------




--------------------------------------- Iteration      1(   7)  ---------------------------------------


    POTLOK:  cpu time      0.0108: real time      0.0111
    SETDIJ:  cpu time      0.0008: real time      0.0008
    EDDIAG:  cpu time      0.0171: real time      0.0172
  RMM-DIIS:  cpu time      0.0115: real time      0.0116
    ORTHCH:  cpu time      0.0014: real time      0.0014
       DOS:  cpu time      0.0006: real time      0.0006
    CHARGE:  cpu time      0.0065: real time      0.0065
    MIXING:  cpu time      0.0008: real time      0.0008
    --------------------------------------------
      LOOP:  cpu time      0.0494: real time      0.0500

 eigenvalue-minimisations  :   338
 total energy-change (2. order) :-0.4439020E+00  (-0.1310987E-01)
 number of electron       5.9999873 magnetization       0.2200842
 augmentation part        1.8368895 magnetization      -0.0726161

 Broyden mixing:
  rms(total) = 0.40001E-01    rms(broyden)= 0.39946E-01
  rms(prec ) = 0.39950E-01
  weight for this iteration     100.00

 eigenvalues of (default mixing * dielectric matrix)
  average eigenvalue GAMMA=   0.7344
  0.8327  0.6361

 Free energy of the ion-electron system (eV)
  ---------------------------------------------------
  alpha Z        PSCENC =         2.41058195
  Ewald energy   TEWEN  =      -140.04302783
  -Hartree energ DENC   =       -81.29257802
  -exchange      EXHF   =         0.00000000
  -V(xc)+E(xc)   XCENC  =        24.21039225
  PAW double counting   =       164.03945041     -194.84410130
  entropy T*S    EENTRO =        -0.00517346
  eigenvalues    EBANDS =      -183.74112922
  atomic energy  EATOM  =       405.54308828
  Solvation  Ediel_sol  =         0.00000000
  ---------------------------------------------------
  free energy    TOTEN  =        -3.72249694 eV

  energy without entropy =       -3.71732348  energy(sigma->0) =       -3.71991021


--------------------------------------------------------------------------------------------------------




--------------------------------------- Iteration      1(   8)  ---------------------------------------


    POTLOK:  cpu time      0.0076: real time      0.0108
    SETDIJ:  cpu time      0.0013: real time      0.0013
    EDDIAG:  cpu time      0.0165: real time      0.0167
  RMM-DIIS:  cpu time      0.0144: real time      0.0145
    ORTHCH:  cpu time      0.0011: real time      0.0011
       DOS:  cpu time      0.0013: real time      0.0013
    CHARGE:  cpu time      0.0066: real time      0.0067
    MIXING:  cpu time      0.0005: real time      0.0005
    --------------------------------------------
      LOOP:  cpu time      0.0494: real time      0.0530

 eigenvalue-minimisations  :   385
 total energy-change (2. order) :-0.1700144E-01  (-0.7252078E-02)
 number of electron       5.9999873 magnetization       0.2214994
 augmentation part        1.8331244 magnetization      -0.0460354

 Broyden mixing:
  rms(total) = 0.14554E-01    rms(broyden)= 0.14418E-01
  rms(prec ) = 0.14703E-01
  weight for this iteration     100.00

 eigenvalues of (default mixing * dielectric matrix)
  average eigenvalue GAMMA=   0.8206
  1.0125  0.7247  0.7247

 Free energy of the ion-electron system (eV)
  ---------------------------------------------------
  alpha Z        PSCENC =         2.41058195
  Ewald energy   TEWEN  =      -140.04302783
  -Hartree energ DENC   =       -81.29298206
  -exchange      EXHF   =         0.00000000
  -V(xc)+E(xc)   XCENC  =        24.19976701
  PAW double counting   =       164.08693882     -194.88881982
  entropy T*S    EENTRO =        -0.00517346
  eigenvalues    EBANDS =      -183.74987128
  atomic energy  EATOM  =       405.54308828
  Solvation  Ediel_sol  =         0.00000000
  ---------------------------------------------------
  free energy    TOTEN  =        -3.73949838 eV

  energy without entropy =       -3.73432492  energy(sigma->0) =       -3.73691165


--------------------------------------------------------------------------------------------------------




--------------------------------------- Iteration      1(   9)  ---------------------------------------


    POTLOK:  cpu time      0.0106: real time      0.0110
    SETDIJ:  cpu time      0.0018: real time      0.0018
    EDDIAG:  cpu time      0.0171: real time      0.0172
  RMM-DIIS:  cpu time      0.0129: real time      0.0130
    ORTHCH:  cpu time      0.0010: real time      0.0010
       DOS:  cpu time      0.0013: real time      0.0013
    CHARGE:  cpu time      0.0070: real time      0.0071
    MIXING:  cpu time      0.0009: real time      0.0009
    --------------------------------------------
      LOOP:  cpu time      0.0525: real time      0.0532

 eigenvalue-minimisations  :   380
 total energy-change (2. order) :-0.2201848E-02  (-0.1800136E-02)
 number of electron       5.9999874 magnetization       0.2219339
 augmentation part        1.8296794 magnetization      -0.0320002

 Broyden mixing:
  rms(total) = 0.92945E-02    rms(broyden)= 0.91662E-02
  rms(prec ) = 0.99819E-02
  weight for this iteration     100.00

 eigenvalues of (default mixing * dielectric matrix)
  average eigenvalue GAMMA=   0.8521
  1.0468  1.0468  0.7181  0.5968

 Free energy of the ion-electron system (eV)
  ---------------------------------------------------
  alpha Z        PSCENC =         2.41058195
  Ewald energy   TEWEN  =      -140.04302783
  -Hartree energ DENC   =       -81.31162474
  -exchange      EXHF   =         0.00000000
  -V(xc)+E(xc)   XCENC  =        24.20348533
  PAW double counting   =       164.14081834     -194.95336713
  entropy T*S    EENTRO =        -0.00517346
  eigenvalues    EBANDS =      -183.72648097
  atomic energy  EATOM  =       405.54308828
  Solvation  Ediel_sol  =         0.00000000
  ---------------------------------------------------
  free energy    TOTEN  =        -3.74170023 eV

  energy without entropy =       -3.73652677  energy(sigma->0) =       -3.73911350


--------------------------------------------------------------------------------------------------------




--------------------------------------- Iteration      1(  10)  ---------------------------------------


    POTLOK:  cpu time      0.0073: real time      0.0111
    SETDIJ:  cpu time      0.0010: real time      0.0010
    EDDIAG:  cpu time      0.0165: real time      0.0166
  RMM-DIIS:  cpu time      0.0140: real time      0.0141
    ORTHCH:  cpu time      0.0013: real time      0.0013
       DOS:  cpu time      0.0007: real time      0.0007
    CHARGE:  cpu time      0.0063: real time      0.0063
    MIXING:  cpu time      0.0005: real time      0.0005
    --------------------------------------------
      LOOP:  cpu time      0.0474: real time      0.0516

 eigenvalue-minimisations  :   374
 total energy-change (2. order) :-0.6759350E-03  (-0.4155791E-03)
 number of electron       5.9999874 magnetization       0.2170031
 augmentation part        1.8290371 magnetization      -0.0304145

 Broyden mixing:
  rms(total) = 0.10524E-01    rms(broyden)= 0.10493E-01
  rms(prec ) = 0.11250E-01
  weight for this iteration     100.00

 eigenvalues of (default mixing * dielectric matrix)
  average eigenvalue GAMMA=   0.9503
  1.6900  1.0365  0.7015  0.7015  0.6222

 Free energy of the ion-electron system (eV)
  ---------------------------------------------------
  alpha Z        PSCENC =         2.41058195
  Ewald energy   TEWEN  =      -140.04302783
  -Hartree energ DENC   =       -81.31829419
  -exchange      EXHF   =         0.00000000
  -V(xc)+E(xc)   XCENC  =        24.20438818
  PAW double counting   =       164.14884562     -194.96595054
  entropy T*S    EENTRO =        -0.00517346
  eigenvalues    EBANDS =      -183.71683417
  atomic energy  EATOM  =       405.54308828
  Solvation  Ediel_sol  =         0.00000000
  ---------------------------------------------------
  free energy    TOTEN  =        -3.74237616 eV

  energy without entropy =       -3.73720270  energy(sigma->0) =       -3.73978943


--------------------------------------------------------------------------------------------------------




--------------------------------------- Iteration      1(  11)  ---------------------------------------


    POTLOK:  cpu time      0.0088: real time      0.0102
    SETDIJ:  cpu time      0.0017: real time      0.0017
    EDDIAG:  cpu time      0.0173: real time      0.0175
  RMM-DIIS:  cpu time      0.0129: real time      0.0130
    ORTHCH:  cpu time      0.0010: real time      0.0010
       DOS:  cpu time      0.0006: real time      0.0006
    CHARGE:  cpu time      0.0066: real time      0.0066
    MIXING:  cpu time      0.0005: real time      0.0005
    --------------------------------------------
      LOOP:  cpu time      0.0494: real time      0.0512

 eigenvalue-minimisations  :   349
 total energy-change (2. order) : 0.3622185E-02  (-0.1005146E-03)
 number of electron       5.9999874 magnetization       0.2171958
 augmentation part        1.8282053 magnetization      -0.0287320

 Broyden mixing:
  rms(total) = 0.41132E-01    rms(broyden)= 0.41131E-01
  rms(prec ) = 0.41949E-01
  weight for this iteration     100.00

 eigenvalues of (default mixing * dielectric matrix)
  average eigenvalue GAMMA=   0.7219
  1.2044  1.0368  0.6998  0.6998  0.6199  0.0704

 Free energy of the ion-electron system (eV)
  ---------------------------------------------------
  alpha Z        PSCENC =         2.41058195
  Ewald energy   TEWEN  =      -140.04302783
  -Hartree energ DENC   =       -81.25542334
  -exchange      EXHF   =         0.00000000
  -V(xc)+E(xc)   XCENC  =        24.19484128
  PAW double counting   =       163.99077068     -194.77457362
  entropy T*S    EENTRO =        -0.00517346
  eigenvalues    EBANDS =      -183.79983792
  atomic energy  EATOM  =       405.54308828
  Solvation  Ediel_sol  =         0.00000000
  ---------------------------------------------------
  free energy    TOTEN  =        -3.73875398 eV

  energy without entropy =       -3.73358052  energy(sigma->0) =       -3.73616725


--------------------------------------------------------------------------------------------------------




--------------------------------------- Iteration      1(  12)  ---------------------------------------


    POTLOK:  cpu time      0.0109: real time      0.0113
    SETDIJ:  cpu time      0.0006: real time      0.0006
    EDDIAG:  cpu time      0.0167: real time      0.0169
  RMM-DIIS:  cpu time      0.0118: real time      0.0119
    ORTHCH:  cpu time      0.0014: real time      0.0014
       DOS:  cpu time      0.0025: real time      0.0025
    CHARGE:  cpu time      0.0067: real time      0.0068
    MIXING:  cpu time      0.0006: real time      0.0006
    --------------------------------------------
      LOOP:  cpu time      0.0512: real time      0.0520

 eigenvalue-minimisations  :   336
 total energy-change (2. order) : 0.9376798E-02  (-0.8076184E-04)
 number of electron       5.9999874 magnetization       0.2175315
 augmentation part        1.8276026 magnetization      -0.0285690

 Broyden mixing:
  rms(total) = 0.74891E-01    rms(broyden)= 0.74891E-01
  rms(prec ) = 0.76113E-01
  weight for this iteration     100.00

 eigenvalues of (default mixing * dielectric matrix)
  average eigenvalue GAMMA=   1.4082
  5.6661  1.0236  0.7074  0.7074  0.6216  0.5658  0.5658

 Free energy of the ion-electron system (eV)
  ---------------------------------------------------
  alpha Z        PSCENC =         2.41058195
  Ewald energy   TEWEN  =      -140.04302783
  -Hartree energ DENC   =       -81.17078441
  -exchange      EXHF   =         0.00000000
  -V(xc)+E(xc)   XCENC  =        24.18226154
  PAW double counting   =       163.76653017     -194.50714132
  entropy T*S    EENTRO =        -0.00517346
  eigenvalues    EBANDS =      -183.90571210
  atomic energy  EATOM  =       405.54308828
  Solvation  Ediel_sol  =         0.00000000
  ---------------------------------------------------
  free energy    TOTEN  =        -3.72937718 eV

  energy without entropy =       -3.72420372  energy(sigma->0) =       -3.72679045


--------------------------------------------------------------------------------------------------------




--------------------------------------- Iteration      1(  13)  ---------------------------------------


    POTLOK:  cpu time      0.0084: real time      0.0107
    SETDIJ:  cpu time      0.0009: real time      0.0010
    EDDIAG:  cpu time      0.0171: real time      0.0172
  RMM-DIIS:  cpu time      0.0122: real time      0.0123
    ORTHCH:  cpu time      0.0013: real time      0.0013
       DOS:  cpu time      0.0005: real time      0.0005
    CHARGE:  cpu time      0.0067: real time      0.0068
    MIXING:  cpu time      0.0006: real time      0.0006
    --------------------------------------------
      LOOP:  cpu time      0.0478: real time      0.0505

 eigenvalue-minimisations  :   376
 total energy-change (2. order) :-0.1319616E-01  (-0.3586291E-03)
 number of electron       5.9999874 magnetization       0.2187214
 augmentation part        1.8283808 magnetization      -0.0247264

 Broyden mixing:
  rms(total) = 0.89916E-03    rms(broyden)= 0.85362E-03
  rms(prec ) = 0.10945E-02
  weight for this iteration     100.00

 eigenvalues of (default mixing * dielectric matrix)
  average eigenvalue GAMMA=   1.0179
  2.5489  1.3406  0.9735  0.9735  0.6683  0.6683  0.5963  0.3734

 Free energy of the ion-electron system (eV)
  ---------------------------------------------------
  alpha Z        PSCENC =         2.41058195
  Ewald energy   TEWEN  =      -140.04302783
  -Hartree energ DENC   =       -81.38308351
  -exchange      EXHF   =         0.00000000
  -V(xc)+E(xc)   XCENC  =        24.21323511
  PAW double counting   =       164.30162073     -195.15200859
  entropy T*S    EENTRO =        -0.00517346
  eigenvalues    EBANDS =      -183.62780602
  atomic energy  EATOM  =       405.54308828
  Solvation  Ediel_sol  =         0.00000000
  ---------------------------------------------------
  free energy    TOTEN  =        -3.74257334 eV

  energy without entropy =       -3.73739988  energy(sigma->0) =       -3.73998661


--------------------------------------------------------------------------------------------------------




--------------------------------------- Iteration      1(  14)  ---------------------------------------


    POTLOK:  cpu time      0.0104: real time      0.0105
    SETDIJ:  cpu time      0.0013: real time      0.0013
    EDDIAG:  cpu time      0.0174: real time      0.0175
  RMM-DIIS:  cpu time      0.0131: real time      0.0132
    ORTHCH:  cpu time      0.0010: real time      0.0010
       DOS:  cpu time      0.0009: real time      0.0010
    CHARGE:  cpu time      0.0069: real time      0.0070
    MIXING:  cpu time      0.0005: real time      0.0005
    --------------------------------------------
      LOOP:  cpu time      0.0515: real time      0.0520

 eigenvalue-minimisations  :   378
 total energy-change (2. order) : 0.1404045E-04  (-0.3068717E-04)
 number of electron       5.9999874 magnetization       0.2187545
 augmentation part        1.8286191 magnetization      -0.0234050

 Broyden mixing:
  rms(total) = 0.60697E-02    rms(broyden)= 0.60677E-02
  rms(prec ) = 0.61143E-02
  weight for this iteration     100.00

 eigenvalues of (default mixing * dielectric matrix)
  average eigenvalue GAMMA=   0.9827
  2.3228  1.2012  1.2012  1.0749  0.7228  0.7228  0.6135  0.5790  0.4059

 Free energy of the ion-electron system (eV)
  ---------------------------------------------------
  alpha Z        PSCENC =         2.41058195
  Ewald energy   TEWEN  =      -140.04302783
  -Hartree energ DENC   =       -81.37884618
  -exchange      EXHF   =         0.00000000
  -V(xc)+E(xc)   XCENC  =        24.21258085
  PAW double counting   =       164.26636459     -195.11601248
  entropy T*S    EENTRO =        -0.00517346
  eigenvalues    EBANDS =      -183.63211501
  atomic energy  EATOM  =       405.54308828
  Solvation  Ediel_sol  =         0.00000000
  ---------------------------------------------------
  free energy    TOTEN  =        -3.74255930 eV

  energy without entropy =       -3.73738584  energy(sigma->0) =       -3.73997257


--------------------------------------------------------------------------------------------------------




--------------------------------------- Iteration      1(  15)  ---------------------------------------


    POTLOK:  cpu time      0.0086: real time      0.0110
    SETDIJ:  cpu time      0.0010: real time      0.0010
    EDDIAG:  cpu time      0.0172: real time      0.0174
  RMM-DIIS:  cpu time      0.0143: real time      0.0144
    ORTHCH:  cpu time      0.0010: real time      0.0010
       DOS:  cpu time      0.0015: real time      0.0015
    CHARGE:  cpu time      0.0067: real time      0.0067
    MIXING:  cpu time      0.0011: real time      0.0011
    --------------------------------------------
      LOOP:  cpu time      0.0514: real time      0.0541

 eigenvalue-minimisations  :   368
 total energy-change (2. order) :-0.6583102E-04  (-0.2028953E-04)
 number of electron       5.9999874 magnetization       0.2188183
 augmentation part        1.8289634 magnetization      -0.0222693

 Broyden mixing:
  rms(total) = 0.19550E-02    rms(broyden)= 0.19508E-02
  rms(prec ) = 0.20491E-02
  weight for this iteration     100.00

 eigenvalues of (default mixing * dielectric matrix)
  average eigenvalue GAMMA=   1.0252
  2.5898  1.4376  1.4376  1.0231  0.7226  0.7226  0.6511  0.6511  0.6268  0.3895

 Free energy of the ion-electron system (eV)
  ---------------------------------------------------
  alpha Z        PSCENC =         2.41058195
  Ewald energy   TEWEN  =      -140.04302783
  -Hartree energ DENC   =       -81.39773231
  -exchange      EXHF   =         0.00000000
  -V(xc)+E(xc)   XCENC  =        24.21527887
  PAW double counting   =       164.30258778     -195.16305941
  entropy T*S    EENTRO =        -0.00517346
  eigenvalues    EBANDS =      -183.60516900
  atomic energy  EATOM  =       405.54308828
  Solvation  Ediel_sol  =         0.00000000
  ---------------------------------------------------
  free energy    TOTEN  =        -3.74262513 eV

  energy without entropy =       -3.73745167  energy(sigma->0) =       -3.74003840


--------------------------------------------------------------------------------------------------------




--------------------------------------- Iteration      1(  16)  ---------------------------------------


    POTLOK:  cpu time      0.0098: real time      0.0101
    SETDIJ:  cpu time      0.0015: real time      0.0015
    EDDIAG:  cpu time      0.0168: real time      0.0170
  RMM-DIIS:  cpu time      0.0086: real time      0.0087
    ORTHCH:  cpu time      0.0016: real time      0.0016
       DOS:  cpu time      0.0006: real time      0.0006
    CHARGE:  cpu time      0.0068: real time      0.0069
    MIXING:  cpu time      0.0008: real time      0.0008
    --------------------------------------------
      LOOP:  cpu time      0.0465: real time      0.0471

 eigenvalue-minimisations  :   275
 total energy-change (2. order) :-0.2433360E-04  (-0.1266043E-04)
 number of electron       5.9999874 magnetization       0.2186241
 augmentation part        1.8290870 magnetization      -0.0213777

 Broyden mixing:
  rms(total) = 0.99561E-03    rms(broyden)= 0.98683E-03
  rms(prec ) = 0.10890E-02
  weight for this iteration     100.00

 eigenvalues of (default mixing * dielectric matrix)
  average eigenvalue GAMMA=   0.9569
  2.5167  1.4477  1.4477  1.0111  0.6786  0.6786  0.7105  0.7105  0.6397  0.3784
  0.3067

 Free energy of the ion-electron system (eV)
  ---------------------------------------------------
  alpha Z        PSCENC =         2.41058195
  Ewald energy   TEWEN  =      -140.04302783
  -Hartree energ DENC   =       -81.39388293
  -exchange      EXHF   =         0.00000000
  -V(xc)+E(xc)   XCENC  =        24.21473684
  PAW double counting   =       164.28470002     -195.14402060
  entropy T*S    EENTRO =        -0.00517346
  eigenvalues    EBANDS =      -183.60965175
  atomic energy  EATOM  =       405.54308828
  Solvation  Ediel_sol  =         0.00000000
  ---------------------------------------------------
  free energy    TOTEN  =        -3.74264947 eV

  energy without entropy =       -3.73747601  energy(sigma->0) =       -3.74006274


--------------------------------------------------------------------------------------------------------




--------------------------------------- Iteration      1(  17)  ---------------------------------------


    POTLOK:  cpu time      0.0082: real time      0.0110
    SETDIJ:  cpu time      0.0008: real time      0.0008
    EDDIAG:  cpu time      0.0169: real time      0.0171
  RMM-DIIS:  cpu time      0.0076: real time      0.0076
    ORTHCH:  cpu time      0.0010: real time      0.0010
       DOS:  cpu time      0.0006: real time      0.0006
    --------------------------------------------
      LOOP:  cpu time      0.0349: real time      0.0380

 eigenvalue-minimisations  :   209
 total energy-change (2. order) :-0.9762879E-05  (-0.1047924E-05)
 number of electron       5.9999874 magnetization       0.2186241
 augmentation part        1.8290870 magnetization      -0.0213777

 Free energy of the ion-electron system (eV)
  ---------------------------------------------------
  alpha Z        PSCENC =         2.41058195
  Ewald energy   TEWEN  =      -140.04302783
  -Hartree energ DENC   =       -81.38535687
  -exchange      EXHF   =         0.00000000
  -V(xc)+E(xc)   XCENC  =        24.21351601
  PAW double counting   =       164.26129460     -195.11629610
  entropy T*S    EENTRO =        -0.00517346
  eigenvalues    EBANDS =      -183.62128581
  atomic energy  EATOM  =       405.54308828
  Solvation  Ediel_sol  =         0.00000000
  ---------------------------------------------------
  free energy    TOTEN  =        -3.74265923 eV

  energy without entropy =       -3.73748577  energy(sigma->0) =       -3.74007250


--------------------------------------------------------------------------------------------------------




 average (electrostatic) potential at core
  the test charge radii are     0.7079
  (the norm of the test charge is              1.0000)
       1 -64.7169       2 -64.7169
 
 
 
 E-fermi :   0.6712     XC(G=0):  -7.1878     alpha+bet : -7.8318

 Fermi energy:         0.6711583037

 spin component 1

 k-point     1 :       0.0000    0.0000    0.0000
  band No.  band energies     occupation 
      1     -45.6488      1.00000
      2     -45.6076      1.00000
      3      -2.9484      1.00000
      4       6.4428      0.00000
      5       6.4428      0.00000
      6       6.4428      0.00000
      7       8.7158      0.00000
      8       8.7158      0.00000

 k-point     2 :       0.2500   -0.0000    0.0000
  band No.  band energies     occupation 
      1     -45.6418      1.00000
      2     -45.6126      1.00000
      3      -2.3445      1.00000
      4       2.7315      0.00000
      5       7.2388      0.00000
      6       7.2388      0.00000
      7       9.5440      0.00000
      8      13.0692      0.00000

 k-point     3 :       0.5000   -0.0000    0.0000
  band No.  band energies     occupation 
      1     -45.6262      1.00000
      2     -45.6262      1.00000
      3      -0.4782      1.00000
      4      -0.4782      1.00000
      5       9.5932      0.00000
      6       9.5932      0.00000
      7       9.5932      0.00000
      8       9.5932      0.00000

 k-point     4 :       0.2500    0.2500   -0.0000
  band No.  band energies     occupation 
      1     -45.6365      1.00000
      2     -45.6159      1.00000
      3      -1.7440      1.00000
      4       2.5358      0.00000
      5       4.7364      0.00000
      6       8.0224      0.00000
      7       9.7646      0.00000
      8      12.2078      0.00000

 k-point     5 :       0.5000    0.2500   -0.0000
  band No.  band energies     occupation 
      1     -45.6252      1.00000
      2     -45.6252      1.00000
      3       0.0549      1.00000
      4       0.0549      1.00000
      5       6.2858      0.00000
      6       6.2860      0.00000
      7      10.2935      0.00000
      8      10.2935      0.00000

 k-point     6 :       0.5000    0.5000   -0.0000
  band No.  band energies     occupation 
      1     -45.6242      1.00000
      2     -45.6242      1.00000
      3       0.9200      0.00000
      4       0.9200      0.00000
      5       4.1532      0.00000
      6       4.1532      0.00000
      7      11.5238      0.00000
      8      11.5238      0.00000

 k-point     7 :       0.2500    0.2500    0.2500
  band No.  band energies     occupation 
      1     -45.6325      1.00000
      2     -45.6179      1.00000
      3      -1.1350      1.00000
      4       3.3517      0.00000
      5       3.3517      0.00000
      6       7.1638      0.00000
      7       9.7988      0.00000
      8       9.7989      0.00000

 k-point     8 :       0.5000    0.2500    0.2500
  band No.  band energies     occupation 
      1     -45.6242      1.00000
      2     -45.6242      1.00000
      3       0.6637      0.58334
      4       0.6637      0.58333
      5       5.7902      0.00000
      6       5.7902      0.00000
      7       8.2957      0.00000
      8       8.2964      0.00000

 k-point     9 :       0.5000    0.5000    0.2500
  band No.  band energies     occupation 
      1     -45.6232      1.00000
      2     -45.6232      1.00000
      3       1.7384      0.00000
      4       1.7384      0.00000
      5       4.1706      0.00000
      6       4.1706      0.00000
      7       8.2351      0.00000
      8       8.2351      0.00000

 k-point    10 :       0.5000    0.5000    0.5000
  band No.  band energies     occupation 
      1     -45.6222      1.00000
      2     -45.6222      1.00000
      3       4.1875      0.00000
      4       4.1875      0.00000
      5       4.1875      0.00000
      6       4.1875      0.00000
      7       4.1875      0.00000
      8       4.1875      0.00000
 Fermi energy:         0.6711583037

 spin component 2

 k-point     1 :       0.0000    0.0000    0.0000
  band No.  band energies     occupation 
      1     -45.6231      1.00000
      2     -45.5823      1.00000
      3      -2.7169      1.00000
      4       6.6310      0.00000
      5       6.6310      0.00000
      6       6.6310      0.00000
      7       8.9697      0.00000
      8       8.9697      0.00000

 k-point     2 :       0.2500   -0.0000    0.0000
  band No.  band energies     occupation 
      1     -45.6162      1.00000
      2     -45.5873      1.00000
      3      -2.1146      1.00000
      4       2.9491      0.00000
      5       7.4250      0.00000
      6       7.4250      0.00000
      7       9.7979      0.00000
      8      13.2906      0.00000

 k-point     3 :       0.5000   -0.0000    0.0000
  band No.  band energies     occupation 
      1     -45.6007      1.00000
      2     -45.6007      1.00000
      3      -0.2526      1.00000
      4      -0.2526      1.00000
      5       9.7717      0.00000
      6       9.7717      0.00000
      7       9.7717      0.00000
      8       9.7717      0.00000

 k-point     4 :       0.2500    0.2500   -0.0000
  band No.  band energies     occupation 
      1     -45.6110      1.00000
      2     -45.5905      1.00000
      3      -1.5156      1.00000
      4       2.7526      0.00000
      5       4.9512      0.00000
      6       8.2061      0.00000
      7       9.9644      0.00000
      8      12.4310      0.00000

 k-point     5 :       0.5000    0.2500   -0.0000
  band No.  band energies     occupation 
      1     -45.5997      1.00000
      2     -45.5997      1.00000
      3       0.2786      1.00000
      4       0.2786      1.00000
      5       6.4987      0.00000
      6       6.4987      0.00000
      7      10.4652      0.00000
      8      10.4652      0.00000

 k-point     6 :       0.5000    0.5000   -0.0000
  band No.  band energies     occupation 
      1     -45.5988      1.00000
      2     -45.5988      1.00000
      3       1.1392      0.00000
      4       1.1392      0.00000
      5       4.3755      0.00000
      6       4.3756      0.00000
      7      11.6686      0.00000
      8      11.6686      0.00000

 k-point     7 :       0.2500    0.2500    0.2500
  band No.  band energies     occupation 
      1     -45.6070      1.00000
      2     -45.5925      1.00000
      3      -0.9082      1.00000
      4       3.5676      0.00000
      5       3.5676      0.00000
      6       7.3660      0.00000
      7      10.0020      0.00000
      8      10.0020      0.00000

 k-point     8 :       0.5000    0.2500    0.2500
  band No.  band energies     occupation 
      1     -45.5987      1.00000
      2     -45.5987      1.00000
      3       0.8863      0.00000
      4       0.8863      0.00000
      5       6.0029      0.00000
      6       6.0029      0.00000
      7       8.4993      0.00000
      8       8.4994      0.00000

 k-point     9 :       0.5000    0.5000    0.2500
  band No.  band energies     occupation 
      1     -45.5978      1.00000
      2     -45.5978      1.00000
      3       1.9569      0.00000
      4       1.9569      0.00000
      5       4.3902      0.00000
      6       4.3903      0.00000
      7       8.4445      0.00000
      8       8.4445      0.00000

 k-point    10 :       0.5000    0.5000    0.5000
  band No.  band energies     occupation 
      1     -45.5968      1.00000
      2     -45.5968      1.00000
      3       4.4036      0.00000
      4       4.4036      0.00000
      5       4.4036      0.00000
      6       4.4036      0.00000
      7       4.4036      0.00000
      8       4.4036      0.00000


--------------------------------------------------------------------------------------------------------


 soft charge-density along one line, spin component           1
         0         1         2         3         4         5         6         7         8         9
 total charge-density along one line
 
 soft charge-density along one line, spin component           2
         0         1         2         3         4         5         6         7         8         9
 total charge-density along one line
 
 pseudopotential strength for first ion, spin component:           1
-40.683   2.911  -0.000  -0.000  -0.000
  2.911  -9.268  -0.000  -0.000   0.000
 -0.000  -0.000   0.125   0.000   0.000
 -0.000  -0.000   0.000   0.125   0.000
 -0.000   0.000   0.000   0.000   0.125
 pseudopotential strength for first ion, spin component:           2
-40.668   2.919   0.000  -0.000  -0.000
  2.919  -9.276   0.000  -0.000   0.000
  0.000   0.000   0.130   0.000   0.000
 -0.000  -0.000   0.000   0.130   0.000
 -0.000   0.000   0.000   0.000   0.130
 total augmentation occupancy for first ion, spin component:           1
  2.001   0.006   0.000   0.000   0.000
  0.006   0.977   0.000   0.000   0.000
  0.000   0.000   0.021  -0.000  -0.000
  0.000   0.000  -0.000   0.021  -0.000
  0.000   0.000  -0.000  -0.000   0.021
 total augmentation occupancy for first ion, spin component:           2
 -0.000  -0.002   0.000   0.000   0.000
 -0.002   0.057   0.000   0.000   0.000
  0.000   0.000   0.004  -0.000  -0.000
  0.000   0.000  -0.000   0.004  -0.000
  0.000  -0.000  -0.000  -0.000   0.004


------------------------ aborting loop because EDIFF is reached ----------------------------------------





 total charge

# of ion       s       p       d       tot
------------------------------------------
    1        2.035   0.045   0.000   2.080
    2        2.035   0.045   0.000   2.080
--------------------------------------------------
tot          4.070   0.089   0.000   4.160



 magnetization (x)

# of ion       s       p       d       tot
------------------------------------------
    1        0.003   0.008   0.000   0.011
    2        0.003   0.008   0.000   0.011
--------------------------------------------------
tot          0.007   0.015   0.000   0.022
 
    CHARGE:  cpu time      0.0067: real time      0.0067
    FORLOC:  cpu time      0.0000: real time      0.0000
    FORNL :  cpu time      0.0012: real time      0.0012
    STRESS:  cpu time      0.0059: real time      0.0059
    FORHAR:  cpu time      0.0006: real time      0.0006
    MIXING:  cpu time      0.0009: real time      0.0009
    OFIELD:  cpu time      0.0000: real time      0.0000

 ---------------------------------------------------------------------------------------------

         DFTD3 V3.0 Rev 1        
 IVDW         = 11
 DF pbe       
 parameters
 VDW_S6       =    1.0000
 VDW_S8       =    0.7220
 VDW_SR       =    1.2170
 rs18     =    1.0000
 alpha6   =   14.0000
 alpha8   =   16.0000
 k1-k3    =   16.0000    1.3333   -4.0000
 VDW_RADIUS   =   50.2022 A
 VDW_CNRADIUS =   21.1671 A
 Edisp (eV)   -0.21106

 E6    (eV) :    -0.1100
 E8    (eV) :    -0.1011
 % E8        : 47.89
    FORVDW:  cpu time      0.0142: real time      0.0143

  FORCE on cell =-STRESS in cart. coord.  units (eV):
  Direction    XX          YY          ZZ          XY          YZ          ZX
  --------------------------------------------------------------------------------------
  Alpha Z     2.41058     2.41058     2.41058
  Ewald     -46.68101   -46.68101   -46.68101     0.00000     0.00000     0.00000
  Hartree    27.12891    27.12891    27.12891     0.00000     0.00000     0.00000
  E(xc)     -26.63458   -26.63458   -26.63458    -0.00000    -0.00000    -0.00000
  Local     -37.63857   -37.63857   -37.63857    -0.00000    -0.00000    -0.00000
  n-local   -38.29634   -39.41320   -39.62331     0.18005     0.14438     0.07484
  augment    34.09413    34.09413    34.09413     0.00000     0.00000     0.00000
  Kinetic    90.19734    85.88050    83.81808     0.84250     0.49602     0.31660
  Fock        0.00000     0.00000     0.00000     0.00000     0.00000     0.00000
  vdW        -0.21630    -0.21630    -0.21630    -0.00000    -0.00000    -0.00000
  -------------------------------------------------------------------------------------
  Total      -0.01581    -0.01581    -0.01581     0.00000     0.00000     0.00000
  in kB      -0.66320    -0.66320    -0.66320     0.00000     0.00000     0.00000
  external pressure =       -0.66 kB  Pullay stress =        0.00 kB


 VOLUME and BASIS-vectors are now :
 -----------------------------------------------------------------------------
  energy-cutoff  :      500.00
  volume of cell :       38.20
      direct lattice vectors                 reciprocal lattice vectors
     3.367805553  0.000000005  0.000000005     0.296929257  0.000000020  0.000000020
    -0.000000231  3.367805553  0.000000005    -0.000000000  0.296929257  0.000000020
    -0.000000231 -0.000000231  3.367805553    -0.000000000 -0.000000000  0.296929257

  length of vectors
     3.367805553  3.367805553  3.367805553     0.296929257  0.296929257  0.296929257


 FORCES acting on ions
    electron-ion (+dipol)            ewald-force                    non-local-force                 convergence-correction
 -----------------------------------------------------------------------------------------------
   0.188E-14 0.233E-14 -.505E-14   -.136E-15 -.278E-15 -.254E-15   -.447E-23 0.866E-23 -.162E-23   0.413E-14 0.403E-14 0.176E-14
   0.112E-12 -.421E-13 0.709E-13   0.219E-15 0.278E-15 0.316E-15   0.705E-23 -.287E-24 -.579E-23   0.423E-14 0.569E-14 -.732E-15
 -----------------------------------------------------------------------------------------------
   0.114E-12 -.398E-13 0.658E-13   0.834E-16 -.199E-18 0.620E-16   0.258E-23 0.837E-23 -.741E-23   0.836E-14 0.973E-14 0.103E-14
 
 
 POSITION                                       TOTAL-FORCE (eV/Angst)
 -----------------------------------------------------------------------------------
      0.00000      0.00000      0.00000        -0.000000      0.000000      0.000000
      1.68390      1.68390      1.68390         0.000000     -0.000000     -0.000000
 -----------------------------------------------------------------------------------
    total drift:                                0.000000     -0.000000      0.000000


--------------------------------------------------------------------------------------------------------



  FREE ENERGIE OF THE ION-ELECTRON SYSTEM (eV)
  ---------------------------------------------------
  free  energy   TOTEN  =        -3.95371881 eV

  energy  without entropy=       -3.94854535  energy(sigma->0) =       -3.95113208
 


--------------------------------------------------------------------------------------------------------


    POTLOK:  cpu time      0.0098: real time      0.0099


--------------------------------------------------------------------------------------------------------


 stress matrix after NEB project (eV)
     -0.01581      0.00000      0.00000
      0.00000     -0.01581      0.00000
      0.00000      0.00000     -0.01581
  FORCES: max atom, RMS     0.000000    0.000000
  FORCE total and by dimension    0.000000    0.000000
  Stress total and by dimension    0.027386    0.015811


--------------------------------------------------------------------------------------------------------


  
 reached required accuracy - stopping structural energy minimisation
     LOOP+:  cpu time      0.8436: real time      0.9703
    4ORBIT:  cpu time      0.0000: real time      0.0000



 total charge

# of ion       s       p       d       tot
------------------------------------------
    1        2.035   0.045   0.000   2.080
    2        2.035   0.045   0.000   2.080
--------------------------------------------------
tot          4.070   0.089   0.000   4.160



 magnetization (x)

# of ion       s       p       d       tot
------------------------------------------
    1        0.003   0.008   0.000   0.011
    2        0.003   0.008   0.000   0.011
--------------------------------------------------
tot          0.007   0.015   0.000   0.022
 

 total amount of memory used by VASP MPI-rank0    30781. kBytes
=======================================================================

   base      :      30000. kBytes
   nonl-proj :         57. kBytes
   fftplans  :        184. kBytes
   grid      :        449. kBytes
   one-center:          2. kBytes
   wavefun   :         89. kBytes
 
  
  
 General timing and accounting informations for this job:
 ========================================================
  
                  Total CPU time used (sec):        1.496
                            User time (sec):        1.185
                          System time (sec):        0.312
                         Elapsed time (sec):        2.542
  
                   Maximum memory used (kb):      132408.
                   Average memory used (kb):          N/A
  
                          Minor page faults:        17731
                          Major page faults:            0
                 Voluntary context switches:          737
